Lammps data file
 
          8220          atoms
          7280          bonds
         10940         angles
         11800      dihedrals
 
            16     atom types
            15     bond types
            25    angle types
            13 dihedral types
 
   -21.00000    21.00000   xlo xhi #  -19.038758   19.004396
   -21.00000    21.00000   ylo yhi #  -19.007549   19.099005
   -85.00000    85.00000   zlo zhi #  -50.000040   50.000018
 
Masses
 
       1 14.007000 #NA 
       2 12.011000 #CR 
       3  1.008000 #HR 
       4 12.011000 #CW 
       5  1.008000 #HW 
       6 12.011000 #CM 
       7  1.008000 #HM 
       8 12.011000 #CA 
       9 12.011000 #CS 
      10  1.008000 #HS 
      11 12.011000 #CT 
      12  1.008000 #HT 
      13 10.811000 #B  
      14 18.998000 #F  
      15 15.999000 #O  
      16  1.008000 #H  
 
Pair Coeffs
 
       1    0.170000    3.250000 #NA 
       2    0.070000    3.550000 #CR 
       3    0.030000    2.420000 #HR 
       4    0.070000    3.550000 #CW 
       5    0.030000    2.420000 #HW 
       6    0.066000    3.500000 #CM 
       7    0.030000    2.500000 #HM 
       8    0.066000    3.500000 #CA 
       9    0.066000    3.500000 #CS 
      10    0.030000    2.500000 #HS 
      11    0.066000    3.500000 #CT 
      12    0.030000    2.500000 #HT 
      13    0.095000    3.581400 #B  
      14    0.060000    3.118100 #F  
      15    0.155300    3.166000 #O  
      16    0.000000    0.000000 #H  
 
Bond Coeffs
 
         1  477.000000    1.315000 #NA   CR   
         2  427.000000    1.378000 #NA   CW   
         3  337.000000    1.476000 #NA   CA   
         4  337.000000    1.465000 #NA   CM   
         5  367.000000    1.069000 #CR   HR   
         6  367.000000    1.068000 #CW   HW   
         7  520.000000    1.336000 #CW   CW   
         8  340.000000    1.080000 #CM   HM   
         9  268.000000    1.526000 #CA   CS   
        10  340.000000    1.087000 #CS   HS   
        11  268.000000    1.531000 #CS   CS   
        12  268.000000    1.528000 #CS   CT   
        13  340.000000    1.084000 #CT   HT   
        14  386.590000    1.394000 #B    F    
        15  386.590000    1.000000 #O    H    
 
Angle Coeffs
 
         1   70.000000  109.800000 #NA   CR   NA   
         2   35.000000  125.100000 #NA   CR   HR   
         3   35.000000  122.000000 #NA   CW   HW   
         4   70.000000  107.100000 #NA   CW   CW   
         5   37.500000  107.500000 #NA   CA   HA   
         6   58.350000  113.000000 #NA   CA   CS   
         7   37.500000  109.200000 #NA   CM   HM   
         8   70.000000  107.900000 #CW   NA   CR   
         9   35.000000  130.900000 #CW   CW   HW   
        10   70.000000  126.400000 #CM   NA   CR   
        11   70.000000  125.600000 #CM   NA   CW   
        12   33.000000  109.800000 #HM   CM   HM   
        13   70.000000  126.800000 #CA   NA   CR   
        14   70.000000  125.300000 #CA   NA   CW   
        15   37.500000  108.600000 #CA   CS   HS   
        16   58.350000  113.300000 #CA   CS   CS   
        17   33.000000  108.900000 #HA   CA   HA   
        18   37.500000  111.100000 #HA   CA   CS   
        19   37.500000  109.600000 #CS   CS   HS   
        20   58.350000  112.300000 #CS   CS   CT   
        21   33.000000  106.700000 #HS   CS   HS   
        22   37.500000  109.700000 #CT   CS   HS   
        23   33.000000  107.900000 #HT   CT   HT   
        24   80.000000  109.470000 #F    B    F    
        25   80.000000  109.470000 #H    O    H    
 
Dihedral Coeffs
 
         1    0.000000   10.750000    0.000000         0.0 #NA   CW   CW   NA   
         2    0.000000    0.000000    0.000000         0.0 #NA   CA   CS   HS   
         3   -0.788000    0.800000    0.400000         0.0 #NA   CA   CS   CS   
         4    0.000000    3.000000    0.000000         0.0 #CR   NA   CW   HW   
         5   -0.159000    0.095000   -0.010000         0.0 #CR   NA   CA   CS   
         6    0.000000    4.651000    0.000000         0.0 #CW   NA   CR   NA   
         7   -2.700000   -5.650000    0.355000         0.0 #CW   NA   CA   HA   
         8   -2.110000   -5.000000    0.345000         0.0 #CW   NA   CA   CS   
         9    0.000000    0.000000    0.124000         0.0 #CW   NA   CM   HM   
        10    0.000000    0.000000    0.366000         0.0 #CA   CS   CS   HS   
        11    1.300000   -0.050000    0.200000         0.0 #CA   CS   CS   CT   
        12    0.000000   -0.150000    0.518000         0.0 #HA   CA   CS   HS   
        13    0.000000    0.000000    0.318000         0.0 #HS   CS   CS   HS   
 
Atoms
 
         1       1       1     0.17600   -13.29640     6.27076   -20.90235 #NA 
         2       1       1     0.17600   -11.13530     6.37669   -20.55107 #NA 
         3       1       2    -0.07200   -12.32565     6.11559   -19.97921 #CR 
         4       1       3     0.16800   -12.47848     5.82467   -18.95132 #HR 
         5       1       4    -0.19200   -12.70056     6.63757   -22.10546 #CW 
         6       1       5     0.21600   -13.27924     6.81667   -22.99874 #HW 
         7       1       4    -0.19200   -11.35414     6.71015   -21.88180 #CW 
         8       1       5     0.21600   -10.54620     6.96359   -22.54860 #HW 
         9       1       6    -0.28000   -14.74094     6.03532   -20.67761 #CM 
        10       1       7     0.14400   -14.94517     6.10554   -19.60834 #HM 
        11       1       7     0.14400   -15.01526     5.04229   -21.04551 #HM 
        12       1       7     0.14400   -15.31231     6.79915   -21.20826 #HM 
        13       1       8    -0.13600    -9.81024     6.35158   -19.86265 #CA 
        14       1       7     0.14400    -9.13325     5.77061   -20.49942 #HA 
        15       1       7     0.14400    -9.95576     5.78723   -18.93627 #HA 
        16       1       9    -0.09600    -9.24758     7.75286   -19.58156 #CS 
        17       1      10     0.04800    -9.97272     8.31484   -18.97672 #HS 
        18       1      10     0.04800    -9.13225     8.30041   -20.52636 #HS 
        19       1       9    -0.09600    -7.89112     7.67879   -18.84883 #CS 
        20       1      10     0.04800    -7.17553     7.11038   -19.45961 #HS 
        21       1      10     0.04800    -8.01603     7.11485   -17.91328 #HS 
        22       1      11    -0.19200    -7.31847     9.07251   -18.54264 #CT 
        23       1      12     0.06400    -6.36153     8.98873   -18.01746 #HT 
        24       1      12     0.06400    -8.00107     9.65119   -17.90951 #HT 
        25       1      12     0.06400    -7.14618     9.64275   -19.46457 #HT 
        26       2       1     0.17600     3.59447   -11.81302    41.73348 #NA 
        27       2       1     0.17600     3.40583   -12.13907    39.57407 #NA 
        28       2       2    -0.07200     3.52668   -11.20218    40.53311 #CR 
        29       2       3     0.16800     3.56774   -10.13644    40.36862 #HR 
        30       2       4    -0.19200     3.52026   -13.18769    41.52893 #CW 
        31       2       5     0.21600     3.55722   -13.89024    42.34744 #HW 
        32       2       4    -0.19200     3.39521   -13.38783    40.18266 #CW 
        33       2       5     0.21600     3.30468   -14.30000    39.61576 #HW 
        34       2       6    -0.28000     3.77243   -11.13074    43.03558 #CM 
        35       2       7     0.14400     3.45282   -10.09272    42.93378 #HM 
        36       2       7     0.14400     4.82453   -11.16985    43.33267 #HM 
        37       2       7     0.14400     3.15572   -11.62961    43.78544 #HM 
        38       2       8    -0.13600     3.26637   -11.87884    38.11010 #CA 
        39       2       7     0.14400     3.97994   -12.53743    37.60178 #HA 
        40       2       7     0.14400     3.59707   -10.84816    37.94822 #HA 
        41       2       9    -0.09600     1.83751   -12.09612    37.59017 #CS 
        42       2      10     0.04800     1.14999   -11.44894    38.15226 #HS 
        43       2      10     0.04800     1.52753   -13.13137    37.78497 #HS 
        44       2       9    -0.09600     1.73517   -11.79282    36.08024 #CS 
        45       2      10     0.04800     2.43036   -12.44130    35.52852 #HS 
        46       2      10     0.04800     2.06328   -10.75970    35.89608 #HS 
        47       2      11    -0.19200     0.30774   -11.98797    35.54313 #CT 
        48       2      12     0.06400     0.26424   -11.75923    34.47339 #HT 
        49       2      12     0.06400    -0.40274   -11.33061    36.05770 #HT 
        50       2      12     0.06400    -0.02976   -13.02361    35.67856 #HT 
        51       3       1     0.17600    -4.92253     6.94043     8.37445 #NA 
        52       3       1     0.17600    -3.53938     7.35932     6.72630 #NA 
        53       3       2    -0.07200    -4.83511     7.19773     7.05355 #CR 
        54       3       3     0.16800    -5.66868     7.26751     6.37176 #HR 
        55       3       4    -0.19200    -3.63644     6.94495     8.90646 #CW 
        56       3       5     0.21600    -3.45061     6.76464     9.95424 #HW 
        57       3       4    -0.19200    -2.77564     7.19890     7.87559 #CW 
        58       3       5     0.21600    -1.70106     7.28113     7.86474 #HW 
        59       3       6    -0.28000    -6.18084     6.74270     9.12956 #CM 
        60       3       7     0.14400    -6.96591     6.44894     8.43145 #HM 
        61       3       7     0.14400    -6.45906     7.67249     9.63432 #HM 
        62       3       7     0.14400    -6.03292     5.95021     9.86547 #HM 
        63       3       8    -0.13600    -3.01043     7.62539     5.35525 #CA 
        64       3       7     0.14400    -2.30636     8.46071     5.44379 #HA 
        65       3       7     0.14400    -3.86042     7.97332     4.76000 #HA 
        66       3       9    -0.09600    -2.34391     6.39857     4.71505 #CS 
        67       3      10     0.04800    -3.06908     5.57362     4.68260 #HS 
        68       3      10     0.04800    -1.50964     6.06154     5.34447 #HS 
        69       3       9    -0.09600    -1.83457     6.71238     3.29222 #CS 
        70       3      10     0.04800    -1.11465     7.54186     3.33562 #HS 
        71       3      10     0.04800    -2.67514     7.06393     2.67679 #HS 
        72       3      11    -0.19200    -1.17860     5.49136     2.62668 #CT 
        73       3      12     0.06400    -0.83408     5.74137     1.61803 #HT 
        74       3      12     0.06400    -1.88520     4.65731     2.54461 #HT 
        75       3      12     0.06400    -0.31013     5.14427     3.20122 #HT 
        76       4       1     0.17600    -6.99395    -6.03901   -29.02536 #NA 
        77       4       1     0.17600    -5.84311    -4.57592   -30.18291 #NA 
        78       4       2    -0.07200    -7.08432    -5.00105   -29.88157 #CR 
        79       4       3     0.16800    -8.00234    -4.57771   -30.25916 #HR 
        80       4       4    -0.19200    -5.64701    -6.27770   -28.76879 #CW 
        81       4       5     0.21600    -5.32217    -7.06416   -28.10482 #HW 
        82       4       4    -0.19200    -4.93162    -5.36913   -29.49739 #CW 
        83       4       5     0.21600    -3.86738    -5.22083   -29.58111 #HW 
        84       4       6    -0.28000    -8.13987    -6.75910   -28.42455 #CM 
        85       4       7     0.14400    -9.01919    -6.60290   -29.05096 #HM 
        86       4       7     0.14400    -8.32775    -6.37893   -27.41615 #HM 
        87       4       7     0.14400    -7.90747    -7.82480   -28.38263 #HM 
        88       4       8    -0.13600    -5.50297    -3.46757   -31.12429 #CA 
        89       4       7     0.14400    -4.77727    -2.82679   -30.61039 #HA 
        90       4       7     0.14400    -6.41990    -2.88501   -31.25739 #HA 
        91       4       9    -0.09600    -4.95501    -3.96375   -32.47066 #CS 
        92       4      10     0.04800    -5.69367    -4.63341   -32.93262 #HS 
        93       4      10     0.04800    -4.04872    -4.56058   -32.30268 #HS 
        94       4       9    -0.09600    -4.64049    -2.78727   -33.41899 #CS 
        95       4      10     0.04800    -3.90543    -2.12140   -32.94516 #HS 
        96       4      10     0.04800    -5.55081    -2.18851   -33.56632 #HS 
        97       4      11    -0.19200    -4.10635    -3.26377   -34.77979 #CT 
        98       4      12     0.06400    -3.89924    -2.40967   -35.43262 #HT 
        99       4      12     0.06400    -4.83364    -3.90783   -35.28763 #HT 
       100       4      12     0.06400    -3.17395    -3.83128   -34.66418 #HT 
       101       5       1     0.17600     8.76125    10.55727    42.73618 #NA 
       102       5       1     0.17600     7.78620    12.15594    41.59669 #NA 
       103       5       2    -0.07200     8.61914    11.89337    42.62109 #CR 
       104       5       3     0.16800     9.09909    12.63114    43.24549 #HR 
       105       5       4    -0.19200     7.99590     9.94955    41.74523 #CW 
       106       5       5     0.21600     7.95182     8.87688    41.63423 #HW 
       107       5       4    -0.19200     7.38330    10.94809    41.04111 #CW 
       108       5       5     0.21600     6.70810    10.90089    40.20237 #HW 
       109       5       6    -0.28000     9.62879     9.86720    43.71793 #CM 
       110       5       7     0.14400     9.81614    10.54144    44.55475 #HM 
       111       5       7     0.14400    10.57462     9.58881    43.24401 #HM 
       112       5       7     0.14400     9.11646     8.97328    44.07838 #HM 
       113       5       8    -0.13600     7.33987    13.51198    41.15816 #CA 
       114       5       7     0.14400     7.46764    13.55125    40.07030 #HA 
       115       5       7     0.14400     8.04444    14.22469    41.59805 #HA 
       116       5       9    -0.09600     5.89336    13.83323    41.56261 #CS 
       117       5      10     0.04800     5.79847    13.74290    42.65362 #HS 
       118       5      10     0.04800     5.21400    13.09058    41.12363 #HS 
       119       5       9    -0.09600     5.48369    15.25114    41.11087 #CS 
       120       5      10     0.04800     5.58753    15.33211    40.01960 #HS 
       121       5      10     0.04800     6.18037    15.98363    41.54331 #HS 
       122       5      11    -0.19200     4.04337    15.59906    41.52144 #CT 
       123       5      12     0.06400     3.78364    16.61113    41.19462 #HT 
       124       5      12     0.06400     3.91952    15.55391    42.60970 #HT 
       125       5      12     0.06400     3.32268    14.90544    41.06944 #HT 
       126       6       1     0.17600     5.01325    14.03575     4.07815 #NA 
       127       6       1     0.17600     3.85422    15.73121     4.84433 #NA 
       128       6       2    -0.07200     5.09519    15.23039     4.69842 #CR 
       129       6       3     0.16800     6.00748    15.70851     5.02044 #HR 
       130       6       4    -0.19200     3.67241    13.77117     3.81505 #CW 
       131       6       5     0.21600     3.35493    12.86717     3.31819 #HW 
       132       6       4    -0.19200     2.95153    14.82614     4.30035 #CW 
       133       6       5     0.21600     1.88906    15.00715     4.30075 #HW 
       134       6       6    -0.28000     6.16379    13.18470     3.69788 #CM 
       135       6       7     0.14400     7.01977    13.45542     4.31755 #HM 
       136       6       7     0.14400     6.40415    13.33833     2.64179 #HM 
       137       6       7     0.14400     5.90489    12.13864     3.87174 #HM 
       138       6       8    -0.13600     3.50448    17.02016     5.51264 #CA 
       139       6       7     0.14400     2.81854    17.54933     4.84124 #HA 
       140       6       7     0.14400     4.43027    17.60182     5.56222 #HA 
       141       6       9    -0.09600     2.88712    16.83129     6.90633 #CS 
       142       6      10     0.04800     3.58743    16.26263     7.53375 #HS 
       143       6      10     0.04800     1.97306    16.22810     6.82622 #HS 
       144       6       9    -0.09600     2.56452    18.18784     7.56820 #CS 
       145       6      10     0.04800     1.86820    18.75021     6.93016 #HS 
       146       6      10     0.04800     3.48353    18.78847     7.62793 #HS 
       147       6      11    -0.19200     1.96088    18.02104     8.97246 #CT 
       148       6      12     0.06400     1.74938    18.99791     9.41917 #HT 
       149       6      12     0.06400     2.64859    17.48734     9.63871 #HT 
       150       6      12     0.06400     1.01932    17.45806     8.93603 #HT 
       151       7       1     0.17600    12.22906     7.92473    25.59432 #NA 
       152       7       1     0.17600    10.37527     9.01202    26.02584 #NA 
       153       7       2    -0.07200    10.90942     7.99411    25.32537 #CR 
       154       7       3     0.16800    10.36950     7.33729    24.66082 #HR 
       155       7       4    -0.19200    12.54318     8.93093    26.50315 #CW 
       156       7       5     0.21600    13.54689     9.07401    26.87325 #HW 
       157       7       4    -0.19200    11.38730     9.61186    26.76470 #CW 
       158       7       5     0.21600    11.20269    10.45720    27.40730 #HW 
       159       7       6    -0.28000    13.16413     6.91274    25.05195 #CM 
       160       7       7     0.14400    12.73937     6.49814    24.13671 #HM 
       161       7       7     0.14400    13.31481     6.11696    25.78730 #HM 
       162       7       7     0.14400    14.11699     7.39460    24.82530 #HM 
       163       7       8    -0.13600     8.94728     9.44733    25.98471 #CA 
       164       7       7     0.14400     8.62039     9.56048    27.02473 #HA 
       165       7       7     0.14400     8.38439     8.61453    25.55174 #HA 
       166       7       9    -0.09600     8.73208    10.74247    25.18754 #CS 
       167       7      10     0.04800     9.10933    10.60025    24.16532 #HS 
       168       7      10     0.04800     9.32431    11.55266    25.63321 #HS 
       169       7       9    -0.09600     7.24128    11.14067    25.15136 #CS 
       170       7      10     0.04800     6.87306    11.27490    26.17830 #HS 
       171       7      10     0.04800     6.65726    10.31580    24.71845 #HS 
       172       7      11    -0.19200     7.00207    12.42655    24.34301 #CT 
       173       7      12     0.06400     5.93710    12.67995    24.32886 #HT 
       174       7      12     0.06400     7.33476    12.30992    23.30504 #HT 
       175       7      12     0.06400     7.54318    13.27636    24.77869 #HT 
       176       8       1     0.17600   -15.85337    -7.03891    31.57982 #NA 
       177       8       1     0.17600   -14.36943    -8.37888    30.68129 #NA 
       178       8       2    -0.07200   -15.59676    -7.84675    30.53093 #CR 
       179       8       3     0.16800   -16.26479    -8.03195    29.70389 #HR 
       180       8       4    -0.19200   -14.74663    -7.05365    32.42361 #CW 
       181       8       5     0.21600   -14.71510    -6.47670    33.33522 #HW 
       182       8       4    -0.19200   -13.82612    -7.89548    31.86495 #CW 
       183       8       5     0.21600   -12.84425    -8.18342    32.20353 #HW 
       184       8       6    -0.28000   -17.08358    -6.23574    31.76456 #CM 
       185       8       7     0.14400   -17.88262    -6.67615    31.16661 #HM 
       186       8       7     0.14400   -16.90348    -5.20497    31.44552 #HM 
       187       8       7     0.14400   -17.36531    -6.25455    32.81896 #HM 
       188       8       8    -0.13600   -13.71940    -9.35336    29.75489 #CA 
       189       8       7     0.14400   -12.70565    -8.98241    29.56513 #HA 
       190       8       7     0.14400   -14.27222    -9.29685    28.81199 #HA 
       191       8       9    -0.09600   -13.69567   -10.78747    30.30440 #CS 
       192       8      10     0.04800   -14.72536   -11.10535    30.51925 #HS 
       193       8      10     0.04800   -13.15288   -10.80790    31.25872 #HS 
       194       8       9    -0.09600   -13.03774   -11.76283    29.30532 #CS 
       195       8      10     0.04800   -12.01095   -11.43266    29.09341 #HS 
       196       8      10     0.04800   -13.57969   -11.72134    28.34956 #HS 
       197       8      11    -0.19200   -13.01938   -13.20812    29.82966 #CT 
       198       8      12     0.06400   -12.55428   -13.87712    29.09844 #HT 
       199       8      12     0.06400   -14.03503   -13.57286    30.02224 #HT 
       200       8      12     0.06400   -12.44908   -13.28460    30.76439 #HT 
       201       9       1     0.17600     3.98857   -16.01312    -0.03796 #NA 
       202       9       1     0.17600     1.82963   -16.14187     0.31889 #NA 
       203       9       2    -0.07200     2.79766   -16.29647    -0.60368 #CR 
       204       9       3     0.16800     2.64666   -16.60207    -1.62758 #HR 
       205       9       4    -0.19200     3.76965   -15.67231     1.29358 #CW 
       206       9       5     0.21600     4.57913   -15.40658     1.95616 #HW 
       207       9       4    -0.19200     2.42234   -15.74614     1.51137 #CW 
       208       9       5     0.21600     1.84555   -15.55671     2.40190 #HW 
       209       9       6    -0.28000     5.30352   -16.10511    -0.71255 #CM 
       210       9       7     0.14400     5.14888   -16.04766    -1.79087 #HM 
       211       9       7     0.14400     5.78583   -17.05251    -0.45466 #HM 
       212       9       7     0.14400     5.92795   -15.27015    -0.38939 #HM 
       213       9       8    -0.13600     0.36540   -16.32514     0.08907 #CA 
       214       9       7     0.14400    -0.00759   -16.95269     0.90661 #HA 
       215       9       7     0.14400     0.26922   -16.90017    -0.83719 #HA 
       216       9       9    -0.09600    -0.40500   -14.99891     0.00678 #CS 
       217       9      10     0.04800     0.02555   -14.38429    -0.79592 #HS 
       218       9      10     0.04800    -0.27272   -14.43690     0.94081 #HS 
       219       9       9    -0.09600    -1.90758   -15.23549    -0.25518 #CS 
       220       9      10     0.04800    -2.32655   -15.85535     0.55009 #HS 
       221       9      10     0.04800    -2.02613   -15.81252    -1.18355 #HS 
       222       9      11    -0.19200    -2.69455   -13.91859    -0.35809 #CT 
       223       9      12     0.06400    -3.75380   -14.11709    -0.55083 #HT 
       224       9      12     0.06400    -2.31487   -13.29263    -1.17399 #HT 
       225       9      12     0.06400    -2.62564   -13.34063     0.57251 #HT 
       226      10       1     0.17600     0.04632    -3.71094     0.49496 #NA 
       227      10       1     0.17600     1.47290    -3.22422    -1.09655 #NA 
       228      10       2    -0.07200     1.33487    -3.41533     0.22880 #CR 
       229      10       3     0.16800     2.12657    -3.34806     0.95904 #HR 
       230      10       4    -0.19200    -0.65817    -3.71382    -0.70535 #CW 
       231      10       5     0.21600    -1.71507    -3.92852    -0.74736 #HW 
       232      10       4    -0.19200     0.23192    -3.40280    -1.69487 #CW 
       233      10       5     0.21600     0.08892    -3.29890    -2.75806 #HW 
       234      10       6    -0.28000    -0.50312    -4.02994     1.83249 #CM 
       235      10       7     0.14400     0.16319    -3.61888     2.59212 #HM 
       236      10       7     0.14400    -0.58037    -5.11465     1.95132 #HM 
       237      10       7     0.14400    -1.49030    -3.57426     1.92911 #HM 
       238      10       8    -0.13600     2.73546    -2.84543    -1.79855 #CA 
       239      10       7     0.14400     2.83804    -3.52306    -2.65390 #HA 
       240      10       7     0.14400     3.55173    -3.06671    -1.10386 #HA 
       241      10       9    -0.09600     2.76280    -1.37570    -2.24391 #CS 
       242      10      10     0.04800     2.61620    -0.73275    -1.36494 #HS 
       243      10      10     0.04800     1.92187    -1.18016    -2.92241 #HS 
       244      10       9    -0.09600     4.09348    -1.02319    -2.94203 #CS 
       245      10      10     0.04800     4.23259    -1.67537    -3.81584 #HS 
       246      10      10     0.04800     4.92795    -1.23837    -2.25920 #HS 
       247      10      11    -0.19200     4.14794     0.44944    -3.38081 #CT 
       248      10      12     0.06400     5.10408     0.67168    -3.86554 #HT 
       249      10      12     0.06400     4.04032     1.12299    -2.52265 #HT 
       250      10      12     0.06400     3.34780     0.68104    -4.09561 #HT 
       251      11       1     0.17600    -6.84558    -9.40674    12.04946 #NA 
       252      11       1     0.17600    -5.73358   -11.27486    12.32971 #NA 
       253      11       2    -0.07200    -6.77839   -10.54697    12.76637 #CR 
       254      11       3     0.16800    -7.45514   -10.83112    13.55747 #HR 
       255      11       4    -0.19200    -5.80986    -9.41355    11.11979 #CW 
       256      11       5     0.21600    -5.65942    -8.60089    10.42564 #HW 
       257      11       4    -0.19200    -5.11379   -10.57568    11.30165 #CW 
       258      11       5     0.21600    -4.24540   -10.95899    10.79116 #HW 
       259      11       6    -0.28000    -7.88114    -8.35875    12.19766 #CM 
       260      11       7     0.14400    -8.32526    -8.44295    13.19046 #HM 
       261      11       7     0.14400    -8.65144    -8.48930    11.43196 #HM 
       262      11       7     0.14400    -7.41281    -7.37862    12.09034 #HM 
       263      11       8    -0.13600    -5.29210   -12.59000    12.88274 #CA 
       264      11       7     0.14400    -5.14071   -13.25865    12.02759 #HA 
       265      11       7     0.14400    -6.13645   -12.97990    13.45972 #HA 
       266      11       9    -0.09600    -4.02457   -12.48945    13.74440 #CS 
       267      11      10     0.04800    -4.20467   -11.78039    14.56431 #HS 
       268      11      10     0.04800    -3.20252   -12.07693    13.14454 #HS 
       269      11       9    -0.09600    -3.61965   -13.86579    14.31368 #CS 
       270      11      10     0.04800    -3.44742   -14.56818    13.48592 #HS 
       271      11      10     0.04800    -4.45597   -14.27536    14.89825 #HS 
       272      11      11    -0.19200    -2.36163   -13.78397    15.19393 #CT 
       273      11      12     0.06400    -2.10299   -14.77181    15.58870 #HT 
       274      11      12     0.06400    -2.51646   -13.11066    16.04503 #HT 
       275      11      12     0.06400    -1.50006   -13.41512    14.62258 #HT 
       276      12       1     0.17600     8.57826   -10.78714    20.30763 #NA 
       277      12       1     0.17600     7.78444   -12.31467    18.95062 #NA 
       278      12       2    -0.07200     8.47825   -12.11369    20.08656 #CR 
       279      12       3     0.16800     8.88413   -12.88734    20.72003 #HR 
       280      12       4    -0.19200     7.91884   -10.12178    19.27829 #CW 
       281      12       5     0.21600     7.86048    -9.04478    19.23891 #HW 
       282      12       4    -0.19200     7.43139   -11.07609    18.42987 #CW 
       283      12       5     0.21600     6.86874   -10.97892    17.51576 #HW 
       284      12       6    -0.28000     9.23284   -10.15829    21.47754 #CM 
       285      12       7     0.14400     9.93857   -10.86974    21.90854 #HM 
       286      12       7     0.14400     8.47809    -9.88461    22.22061 #HM 
       287      12       7     0.14400     9.76999    -9.26709    21.14780 #HM 
       288      12       8    -0.13600     7.48103   -13.64077    18.33438 #CA 
       289      12       7     0.14400     6.41248   -13.63981    18.09043 #HA 
       290      12       7     0.14400     7.63867   -14.38756    19.11880 #HA 
       291      12       9    -0.09600     8.33664   -13.94216    17.09492 #CS 
       292      12      10     0.04800     9.39865   -13.89304    17.37275 #HS 
       293      12      10     0.04800     8.17230   -13.16611    16.33563 #HS 
       294      12       9    -0.09600     8.00671   -15.33044    16.50653 #CS 
       295      12      10     0.04800     6.94173   -15.37041    16.23739 #HS 
       296      12      10     0.04800     8.15939   -16.09650    17.28032 #HS 
       297      12      11    -0.19200     8.86524   -15.65886    15.27398 #CT 
       298      12      12     0.06400     8.61467   -16.65041    14.88333 #HT 
       299      12      12     0.06400     9.93301   -15.65407    15.52196 #HT 
       300      12      12     0.06400     8.70102   -14.93026    14.46963 #HT 
       301      13       1     0.17600     1.12131    -1.77172    22.80357 #NA 
       302      13       1     0.17600     2.27856    -0.04209    23.49211 #NA 
       303      13       2    -0.07200     2.36532    -1.30505    23.03436 #CR 
       304      13       3     0.16800     3.28070    -1.85342    22.87334 #HR 
       305      13       4    -0.19200     0.21198    -0.76679    23.12026 #CW 
       306      13       5     0.21600    -0.85309    -0.90527    23.01379 #HW 
       307      13       4    -0.19200     0.93562     0.30764    23.55626 #CW 
       308      13       5     0.21600     0.61249     1.27745    23.89783 #HW 
       309      13       6    -0.28000     0.79303    -3.10742    22.25515 #CM 
       310      13       7     0.14400     1.63620    -3.77622    22.43334 #HM 
       311      13       7     0.14400     0.59953    -3.02878    21.18133 #HM 
       312      13       7     0.14400    -0.09170    -3.49329    22.76491 #HM 
       313      13       8    -0.13600     3.42714     0.82113    23.89951 #CA 
       314      13       7     0.14400     3.28070     1.79310    23.41460 #HA 
       315      13       7     0.14400     4.32254     0.36747    23.46326 #HA 
       316      13       9    -0.09600     3.56123     0.97117    25.42223 #CS 
       317      13      10     0.04800     3.66468    -0.02595    25.87224 #HS 